 Gaussian 16, Revision C.01,
 Gaussian 16:  ES64L-G16RevC.01  3-Jul-2019

 --------------------------------------------------------
 #P M062X/Gen field=Y+8 int=(grid=ultrafine) polar=Dipole
 --------------------------------------------------------

 ---
 dhp
 ---
 Symbolic Z-matrix:
 Charge = -1 Multiplicity = 1

                         Standard orientation:
 ---------------------------------------------------------------------
 Center     Atomic      Atomic             Coordinates (Angstroms)
 Number     Number       Type             X           Y           Z
 ---------------------------------------------------------------------
      1         15           0        0.000527    0.116543    0.146306
      2          8           0        0.006674    1.610267    0.258721
      3          8           0       -0.003366   -0.885129    1.284823
      4          8           0        1.308285   -0.328482   -0.850741
      5          1           0        1.541336   -1.195527   -0.467631
      6          8           0       -1.311299   -0.317877   -0.850324
      7          1           0       -1.551598   -1.182846   -0.466793
 ---------------------------------------------------------------------

 SCF Done:  E(RM062X) =  -643.608840684     A.U. after   12 cycles

 The electronic state is 1-A.
 Alpha  occ. eigenvalues --  -78.01223 -19.47302 -19.47301 -19.40727 -19.39957
 Alpha  occ. eigenvalues --   -6.78300  -4.90170  -4.90104  -4.89910  -0.99779
 Alpha  occ. eigenvalues --   -0.94671  -0.89256  -0.86730  -0.48060  -0.40303
 Alpha  occ. eigenvalues --   -0.37341  -0.33080  -0.32233  -0.26546  -0.25525
 Alpha  occ. eigenvalues --   -0.22733  -0.20142  -0.18000  -0.17440  -0.16327
 Alpha virt. eigenvalues --    0.11332   0.13200   0.15149   0.15594   0.16677
 Alpha virt. eigenvalues --    0.18206   0.19177   0.19938   0.22255   0.25031
 Alpha virt. eigenvalues --    0.27331   0.29829   0.31591   0.32088   0.32163

 Mulliken charges:
               1
     1  P    1.228788
     2  O   -0.627204
     3  O   -0.726842
     4  O   -0.055242
     5  H   -0.382099
     6  O   -0.055453
     7  H   -0.381948
 Sum of Mulliken charges =  -1.00000

 Dipole moment (field-independent basis, Debye):
    X=             -0.0139    Y=             -3.4464    Z=             -1.2882  Tot=              3.6793
 Quadrupole moment (field-independent basis, Debye-Ang):
   XX=            -40.0155   YY=            -44.5790   ZZ=            -47.2714
   XY=             -0.0184   XZ=              0.0073   YZ=              2.4738

  Exact polarizability:      44.739       0.013      47.436      -0.001      -0.359      43.148
 Approx polarizability:      47.928       0.030      54.890      -0.008      -2.058      48.303

 Normal termination of Gaussian 16 at Mon Nov 30 17:35:55 2020.
