 Gaussian 16, Revision C.01,
 Gaussian 16:  ES64L-G16RevC.01  3-Jul-2019

 --------------------------------------------------------
 #P M062X/Gen field=X-8 int=(grid=ultrafine) polar=Dipole
 --------------------------------------------------------

 ---
 dhp
 ---
 Symbolic Z-matrix:
 Charge = -1 Multiplicity = 1

                         Standard orientation:
 ---------------------------------------------------------------------
 Center     Atomic      Atomic             Coordinates (Angstroms)
 Number     Number       Type             X           Y           Z
 ---------------------------------------------------------------------
      1         15           0        0.000527    0.116543    0.146306
      2          8           0        0.006674    1.610267    0.258721
      3          8           0       -0.003366   -0.885129    1.284823
      4          8           0        1.308285   -0.328482   -0.850741
      5          1           0        1.541336   -1.195527   -0.467631
      6          8           0       -1.311299   -0.317877   -0.850324
      7          1           0       -1.551598   -1.182846   -0.466793
 ---------------------------------------------------------------------

 SCF Done:  E(RM062X) =  -643.607781068     A.U. after   12 cycles

 The electronic state is 1-A.
 Alpha  occ. eigenvalues --  -78.01218 -19.47451 -19.47242 -19.40786 -19.39864
 Alpha  occ. eigenvalues --   -6.78295  -4.90166  -4.90100  -4.89904  -0.99813
 Alpha  occ. eigenvalues --   -0.94717  -0.89247  -0.86711  -0.48084  -0.40338
 Alpha  occ. eigenvalues --   -0.37384  -0.33119  -0.32219  -0.26545  -0.25535
 Alpha  occ. eigenvalues --   -0.22754  -0.20130  -0.18052  -0.17368  -0.16300
 Alpha virt. eigenvalues --    0.10958   0.12947   0.15184   0.15591   0.16896
 Alpha virt. eigenvalues --    0.18344   0.19227   0.19941   0.22152   0.24911
 Alpha virt. eigenvalues --    0.27099   0.29870   0.31576   0.32054   0.32262

 Mulliken charges:
               1
     1  P    1.230000
     2  O   -0.622892
     3  O   -0.729413
     4  O   -0.053334
     5  H   -0.382454
     6  O   -0.055089
     7  H   -0.386818
 Sum of Mulliken charges =  -1.00000

 Dipole moment (field-independent basis, Debye):
    X=              0.0770    Y=             -3.3499    Z=             -1.2890  Tot=              3.5901
 Quadrupole moment (field-independent basis, Debye-Ang):
   XX=            -40.0285   YY=            -44.5631   ZZ=            -47.2814
   XY=             -0.0328   XZ=             -0.0069   YZ=              2.4866

  Exact polarizability:      44.747       0.018      47.479      -0.005      -0.348      43.145
 Approx polarizability:      47.937       0.049      54.991      -0.017      -2.035      48.293

 Normal termination of Gaussian 16 at Mon Nov 30 17:35:45 2020.
