 Gaussian 16, Revision C.01,
 Gaussian 16:  ES64L-G16RevC.01  3-Jul-2019

 --------------------------------------------------------
 #P M062X/Gen field=Y-8 int=(grid=ultrafine) polar=Dipole
 --------------------------------------------------------

 ---
 dhp
 ---
 Symbolic Z-matrix:
 Charge = -1 Multiplicity = 1

                         Standard orientation:
 ---------------------------------------------------------------------
 Center     Atomic      Atomic             Coordinates (Angstroms)
 Number     Number       Type             X           Y           Z
 ---------------------------------------------------------------------
      1         15           0        0.000527    0.116543    0.146306
      2          8           0        0.006674    1.610267    0.258721
      3          8           0       -0.003366   -0.885129    1.284823
      4          8           0        1.308285   -0.328482   -0.850741
      5          1           0        1.541336   -1.195527   -0.467631
      6          8           0       -1.311299   -0.317877   -0.850324
      7          1           0       -1.551598   -1.182846   -0.466793
 ---------------------------------------------------------------------

 SCF Done:  E(RM062X) =  -643.606731966     A.U. after   12 cycles

 The electronic state is 1-A.
 Alpha  occ. eigenvalues --  -78.01212 -19.47392 -19.47390 -19.40845 -19.39772
 Alpha  occ. eigenvalues --   -6.78291  -4.90162  -4.90095  -4.89898  -0.99844
 Alpha  occ. eigenvalues --   -0.94764  -0.89244  -0.86689  -0.48107  -0.40373
 Alpha  occ. eigenvalues --   -0.37426  -0.33157  -0.32208  -0.26547  -0.25538
 Alpha  occ. eigenvalues --   -0.22780  -0.20120  -0.18108  -0.17291  -0.16271
 Alpha virt. eigenvalues --    0.10725   0.12533   0.15295   0.15588   0.17016
 Alpha virt. eigenvalues --    0.18498   0.19336   0.19912   0.22058   0.24822
 Alpha virt. eigenvalues --    0.26833   0.29928   0.31586   0.32050   0.32318

 Mulliken charges:
               1
     1  P    1.231271
     2  O   -0.618651
     3  O   -0.731992
     4  O   -0.052978
     5  H   -0.387332
     6  O   -0.053176
     7  H   -0.387142
 Sum of Mulliken charges =  -1.00000

 Dipole moment (field-independent basis, Debye):
    X=             -0.0138    Y=             -3.2533    Z=             -1.2897  Tot=              3.4996
 Quadrupole moment (field-independent basis, Debye-Ang):
   XX=            -40.0399   YY=            -44.5484   ZZ=            -47.2913
   XY=             -0.0181   XZ=              0.0075   YZ=              2.4991

  Exact polarizability:      44.749       0.013      47.527      -0.001      -0.337      43.140
 Approx polarizability:      47.939       0.030      55.096      -0.008      -2.011      48.282

 Normal termination of Gaussian 16 at Mon Nov 30 17:35:50 2020.
