                               Psi4 1.1 release

  ==> Input File <==

--------------------------------------------------------------------------
# PSI4 Calc: name

memory 48gb

molecule complex {
0 1
O         -2.59997        1.43514       -0.00941
C         -1.49529        0.91037       -0.00522
C         -1.36911       -0.56490       -0.00166
C         -0.14295       -1.08333        0.00136
C          0.23495       -2.48778        0.00659
C          1.58150       -2.49414        0.00632
N          2.08446       -1.21170        0.00136
H          3.07051       -0.99110        0.00138
C          1.07818       -0.28165        0.00136
C          1.08688        1.04876        0.00275
C         -0.20917        1.75331       -0.00185
O         -0.24946        2.97593       -0.00160
H         -2.28005       -1.14708       -0.00290
H         -0.42827       -3.33619        0.01102
H          2.24720       -3.34637        0.01047
H          1.98644        1.64666        0.00817
--
-1 1
H          6.91856        0.34190        1.08330
O          4.80867       -1.76396        0.09917
C          6.71256       -0.27224        0.18229
C          5.20071       -0.56454        0.09495
H          7.29629       -1.21141        0.22972
O          4.44999        0.49380        0.01890
H          7.02931        0.32435       -0.69830
units angstrom
no_reorient
symmetry c1
}

set sapt {
    print 1
}

set globals {
    scf_type df
    basis aug-cc-pVDZ # same level of theory that Katya G uses
    guess sad
}
energy('sapt2+')
--------------------------------------------------------------------------

  //              Dimer HF             //
    Molecular point group: c1
  Charge       = -1
  Multiplicity = 1
  Basis Set: AUG-CC-PVDZ
    Blend: AUG-CC-PVDZ
  Basis Set: (AUG-CC-PVDZ AUX)
    Blend: AUG-CC-PVDZ-JKFIT
  @DF-RHF Final Energy:  -737.36432833917570
    Total Energy =                       -737.3643283391756995
  //            Monomer A HF           //
    Molecular point group: c1
  Multiplicity = 1
  Basis Set: AUG-CC-PVDZ
    Blend: AUG-CC-PVDZ
  Basis Set: (AUG-CC-PVDZ AUX)
    Blend: AUG-CC-PVDZ-JKFIT
  @DF-RHF Final Energy:  -510.04436860230624
    Total Energy =                       -510.0443686023062355
  //            Monomer B HF           //
    Molecular point group: c1

    Geometry (in Angstrom), charge = -1, multiplicity = 1:

       Center              X                  Y                   Z               Mass
    ------------   -----------------  -----------------  -----------------  -----------------
           O(Gh)     -4.103936330600     1.546485695092    -0.037666064151    15.994914619560
           C(Gh)     -2.999256330600     1.021715695092    -0.033476064151    12.000000000000
           C(Gh)     -2.873076330600    -0.453554304908    -0.029916064151    12.000000000000
           C(Gh)     -1.646916330600    -0.971984304908    -0.026896064151    12.000000000000
           C(Gh)     -1.269016330600    -2.376434304908    -0.021666064151    12.000000000000
           C(Gh)      0.077533669400    -2.382794304908    -0.021936064151    12.000000000000
           N(Gh)      0.580493669400    -1.100354304908    -0.026896064151    14.003074004780
           H(Gh)      1.566543669400    -0.879754304908    -0.026876064151     1.007825032070
           C(Gh)     -0.425786330600    -0.170304304908    -0.026896064151    12.000000000000
           C(Gh)     -0.417086330600     1.160105695092    -0.025506064151    12.000000000000
           C(Gh)     -1.713136330600     1.864655695092    -0.030106064151    12.000000000000
           O(Gh)     -1.753426330600     3.087275695092    -0.029856064151    15.994914619560
           H(Gh)     -3.784016330600    -1.035734304908    -0.031156064151     1.007825032070
           H(Gh)     -1.932236330600    -3.224844304908    -0.017236064151     1.007825032070
           H(Gh)      0.743233669400    -3.235024304908    -0.017786064151     1.007825032070
           H(Gh)      0.482473669400     1.758005695092    -0.020086064151     1.007825032070
           H          5.414593669400     0.453245695092     1.055043935849     1.007825032070
           O          3.304703669400    -1.652614304908     0.070913935849    15.994914619560
           C          5.208593669400    -0.160894304908     0.154033935849    12.000000000000
           C          3.696743669400    -0.453194304908     0.066693935849    12.000000000000
           H          5.792323669400    -1.100064304908     0.201463935849     1.007825032070
           O          2.946023669400     0.605145695092    -0.009356064151    15.994914619560
           H          5.525343669400     0.435695695092    -0.726556064151     1.007825032070

  Charge       = -1
  Multiplicity = 1
  Basis Set: AUG-CC-PVDZ
    Blend: AUG-CC-PVDZ
  Basis Set: (AUG-CC-PVDZ AUX)
    Blend: AUG-CC-PVDZ-JKFIT

    Orbital Energies (a.u.)
    -----------------------

    Doubly Occupied:

       1A    -20.304860     2A    -20.292059     3A    -11.146750
       4A    -11.064076     5A     -1.153540     6A     -1.049190
       7A     -0.794734     8A     -0.514714     9A     -0.414987
      10A     -0.410229    11A     -0.408539    12A     -0.353453
      13A     -0.309619    14A     -0.200666    15A     -0.193908
      16A     -0.183047

  @DF-RHF Final Energy:  -227.26997793493877

   => Energetics <=

    Nuclear Repulsion Energy =            110.5353741379553014
    One-Electron Energy =                -538.0219672107582483
    Two-Electron Energy =                 200.2166151378642098
    DFT Exchange-Correlation Energy =       0.0000000000000000
    Empirical Dispersion Energy =           0.0000000000000000
    PCM Polarization Energy =               0.0000000000000000
    EFP Energy =                            0.0000000000000000
    Total Energy =                       -227.2699779349387654

    SAPT Results
  --------------------------------------------------------------------------------------------------------
    Electrostatics                -58.65111092 [mEh]     -36.80412929 [kcal/mol]    -153.98849171 [kJ/mol]
      Elst10,r                    -59.06916780 [mEh]     -37.06646395 [kcal/mol]    -155.08610007 [kJ/mol]
      Elst12,r                      0.41805689 [mEh]       0.26233467 [kcal/mol]       1.09760836 [kJ/mol]

    Exchange                       41.57198256 [mEh]      26.08681399 [kcal/mol]     109.14724022 [kJ/mol]
      Exch10                       33.70831489 [mEh]      21.15228782 [kcal/mol]      88.50118073 [kJ/mol]
      Exch10(S^2)                  33.06333148 [mEh]      20.74755461 [kcal/mol]      86.80777681 [kJ/mol]
      Exch11(S^2)                  -0.88451560 [mEh]      -0.55504194 [kcal/mol]      -2.32229571 [kJ/mol]
      Exch12(S^2)                   8.74818328 [mEh]       5.48956812 [kcal/mol]      22.96835520 [kJ/mol]

    Induction                     -27.94470279 [mEh]     -17.53556648 [kcal/mol]     -73.36881719 [kJ/mol]
      Ind20,r                     -29.60083527 [mEh]     -18.57480534 [kcal/mol]     -77.71699301 [kJ/mol]
      Ind22                        -5.62426408 [mEh]      -3.52927914 [kcal/mol]     -14.76650533 [kJ/mol]
      Exch-Ind20,r                 12.10772207 [mEh]       7.59771062 [kcal/mol]      31.78882429 [kJ/mol]
      Exch-Ind22                    2.30051029 [mEh]       1.44359206 [kcal/mol]       6.03998978 [kJ/mol]
      delta HF,r (2)               -7.12783581 [mEh]      -4.47278468 [kcal/mol]     -18.71413291 [kJ/mol]

    Dispersion                    -13.88516767 [mEh]      -8.71307462 [kcal/mol]     -36.45550772 [kJ/mol]
      Disp20                      -14.71592537 [mEh]      -9.23438297 [kcal/mol]     -38.63666205 [kJ/mol]
      Disp21                        1.80908043 [mEh]       1.13521516 [kcal/mol]       4.74974067 [kJ/mol]
      Disp22 (SDQ)                 -1.08826882 [mEh]      -0.68289902 [kcal/mol]      -2.85724979 [kJ/mol]
      Disp22 (T)                   -2.76084806 [mEh]      -1.73245838 [kcal/mol]      -7.24860657 [kJ/mol]
      Est. Disp22 (T)              -3.00304789 [mEh]      -1.88444108 [kcal/mol]      -7.88450223 [kJ/mol]
      Exch-Disp20                   3.11299397 [mEh]       1.95343329 [kcal/mol]       8.17316568 [kJ/mol]

  Total HF                        -49.98180193 [mEh]     -31.36405554 [kcal/mol]    -131.22722097 [kJ/mol]
  Total SAPT0                     -61.58473332 [mEh]     -38.64500522 [kcal/mol]    -161.69071734 [kJ/mol]
  Total SAPT2                     -56.62676254 [mEh]     -35.53383145 [kcal/mol]    -148.67356505 [kJ/mol]
  Total SAPT2+                    -58.90899882 [mEh]     -36.96595639 [kcal/mol]    -154.66557640 [kJ/mol]

  Special recipe for scaled SAPT0 (see Manual):
    Electrostatics sSAPT0         -59.06916780 [mEh]     -37.06646395 [kcal/mol]    -155.08610007 [kJ/mol]
    Exchange sSAPT0                33.70831489 [mEh]      21.15228782 [kcal/mol]      88.50118073 [kJ/mol]
    Induction sSAPT0              -23.89846193 [mEh]     -14.99651189 [kcal/mol]     -62.74541179 [kJ/mol]
    Dispersion sSAPT0             -11.41717408 [mEh]      -7.16438520 [kcal/mol]     -29.97579054 [kJ/mol]
  Total sSAPT0                    -60.67648892 [mEh]     -38.07507323 [kcal/mol]    -159.30612167 [kJ/mol]
  --------------------------------------------------------------------------------------------------------

*** Psi4 exiting successfully. Buy a developer a beer!
