 Gaussian 16, Revision C.01,
 Gaussian 16:  ES64L-G16RevC.01  3-Jul-2019

 --------------------------------------------------------
 #P M062X/Gen field=Z-8 int=(grid=ultrafine) polar=Dipole
 --------------------------------------------------------

 ---
 dhp
 ---
 Symbolic Z-matrix:
 Charge = -1 Multiplicity = 1

                         Standard orientation:
 ---------------------------------------------------------------------
 Center     Atomic      Atomic             Coordinates (Angstroms)
 Number     Number       Type             X           Y           Z
 ---------------------------------------------------------------------
      1         15           0        0.000527    0.116543    0.146306
      2          8           0        0.006674    1.610267    0.258721
      3          8           0       -0.003366   -0.885129    1.284823
      4          8           0        1.308285   -0.328482   -0.850741
      5          1           0        1.541336   -1.195527   -0.467631
      6          8           0       -1.311299   -0.317877   -0.850324
      7          1           0       -1.551598   -1.182846   -0.466793
 ---------------------------------------------------------------------

 SCF Done:  E(RM062X) =  -643.607379227     A.U. after   12 cycles

 The electronic state is 1-A.
 Alpha  occ. eigenvalues --  -78.01197 -19.47400 -19.47399 -19.40704 -19.39842
 Alpha  occ. eigenvalues --   -6.78276  -4.90148  -4.90081  -4.89883  -0.99840
 Alpha  occ. eigenvalues --   -0.94774  -0.89220  -0.86656  -0.48117  -0.40390
 Alpha  occ. eigenvalues --   -0.37396  -0.33159  -0.32216  -0.26498  -0.25576
 Alpha  occ. eigenvalues --   -0.22808  -0.20077  -0.18008  -0.17341  -0.16248
 Alpha virt. eigenvalues --    0.10959   0.12781   0.15120   0.15742   0.16862
 Alpha virt. eigenvalues --    0.18273   0.19331   0.19901   0.22132   0.24868
 Alpha virt. eigenvalues --    0.27014   0.29896   0.31541   0.32008   0.32182

 Mulliken charges:
               1
     1  P    1.230066
     2  O   -0.622550
     3  O   -0.726482
     4  O   -0.055512
     5  H   -0.384988
     6  O   -0.055718
     7  H   -0.384816
 Sum of Mulliken charges =  -1.00000

 Dipole moment (field-independent basis, Debye):
    X=             -0.0139    Y=             -3.3507    Z=             -1.2013  Tot=              3.5595
 Quadrupole moment (field-independent basis, Debye-Ang):
   XX=            -40.0482   YY=            -44.5529   ZZ=            -47.2685
   XY=             -0.0181   XZ=              0.0074   YZ=              2.4723

  Exact polarizability:      44.740       0.013      47.490      -0.001      -0.352      43.154
 Approx polarizability:      47.920       0.030      55.014      -0.008      -2.034      48.320

 Normal termination of Gaussian 16 at Mon Nov 30 17:35:48 2020.
