 Gaussian 16, Revision C.01,
 Gaussian 16:  ES64L-G16RevC.01  3-Jul-2019

 --------------------------------------------------------
 #P M062X/Gen field=Z+8 int=(grid=ultrafine) polar=Dipole
 --------------------------------------------------------

 ---
 dhp
 ---
 Symbolic Z-matrix:
 Charge = -1 Multiplicity = 1

                         Standard orientation:
 ---------------------------------------------------------------------
 Center     Atomic      Atomic             Coordinates (Angstroms)
 Number     Number       Type             X           Y           Z
 ---------------------------------------------------------------------
      1         15           0        0.000527    0.116543    0.146306
      2          8           0        0.006674    1.610267    0.258721
      3          8           0       -0.003366   -0.885129    1.284823
      4          8           0        1.308285   -0.328482   -0.850741
      5          1           0        1.541336   -1.195527   -0.467631
      6          8           0       -1.311299   -0.317877   -0.850324
      7          1           0       -1.551598   -1.182846   -0.466793
 ---------------------------------------------------------------------

 SCF Done:  E(RM062X) =  -643.608190623     A.U. after   12 cycles

 The electronic state is 1-A.
 Alpha  occ. eigenvalues --  -78.01238 -19.47294 -19.47293 -19.40868 -19.39887
 Alpha  occ. eigenvalues --   -6.78314  -4.90184  -4.90119  -4.89925  -0.99783
 Alpha  occ. eigenvalues --   -0.94662  -0.89276  -0.86766  -0.48049  -0.40286
 Alpha  occ. eigenvalues --   -0.37371  -0.33079  -0.32224  -0.26593  -0.25489
 Alpha  occ. eigenvalues --   -0.22704  -0.20183  -0.18099  -0.17392  -0.16352
 Alpha virt. eigenvalues --    0.11103   0.12957   0.15179   0.15610   0.16798
 Alpha virt. eigenvalues --    0.18417   0.19158   0.19978   0.22185   0.24988
 Alpha virt. eigenvalues --    0.27149   0.29855   0.31632   0.32119   0.32294

 Mulliken charges:
               1
     1  P    1.229907
     2  O   -0.623273
     3  O   -0.732351
     4  O   -0.052709
     5  H   -0.384415
     6  O   -0.052913
     7  H   -0.384247
 Sum of Mulliken charges =  -1.00000

 Dipole moment (field-independent basis, Debye):
    X=             -0.0139    Y=             -3.3492    Z=             -1.3766  Tot=              3.6211
 Quadrupole moment (field-independent basis, Debye-Ang):
   XX=            -40.0073   YY=            -44.5735   ZZ=            -47.2952
   XY=             -0.0184   XZ=              0.0075   YZ=              2.5005

  Exact polarizability:      44.748       0.013      47.468      -0.001      -0.343      43.139
 Approx polarizability:      47.948       0.030      54.967      -0.008      -2.036      48.270

 Normal termination of Gaussian 16 at Mon Nov 30 17:35:53 2020.
