 Gaussian 16, Revision A.03,
 Gaussian 16:  ES64L-G16RevA.03 25-Dec-2016

 -------------------------------------------------------
 #P MP2/cc-pVTZ int=(grid=ultrafine) pop=(chelpg,dipole)
 -------------------------------------------------------

 ---
 ind
 ---
 Symbolic Z-matrix:
 Charge =  0 Multiplicity = 1

                         Standard orientation:
 ---------------------------------------------------------------------
 Center     Atomic      Atomic             Coordinates (Angstroms)
 Number     Number       Type             X           Y           Z
 ---------------------------------------------------------------------
      1          8           0        2.685843    1.383186    0.011243
      2          6           0        1.606303    0.787223    0.002524
      3          6           0        0.308157    1.505518   -0.002976
      4          6           0       -0.854418    0.777842   -0.002295
      5          6           0       -2.265838    1.179674   -0.008409
      6          6           0       -3.009249    0.026914   -0.002795
      7          7           0       -2.178317   -1.108137    0.013219
      8          1           0       -2.501296   -2.066192   -0.013378
      9          6           0       -0.842260   -0.715255    0.004995
     10          6           0        0.295405   -1.481284    0.004102
     11          6           0        1.596830   -0.788113   -0.003227
     12          8           0        2.673878   -1.390549   -0.012878
     13          1           0        0.324517    2.600783   -0.006031
     14          1           0       -2.654686    2.197780   -0.014207
     15          1           0       -4.094104   -0.095380   -0.004337
     16          1           0        0.286440   -2.576244    0.006985
 ---------------------------------------------------------------------

 SCF Done:  E(RHF) =  -510.143157378     A.U. after   17 cycles
 E2 =    -0.1893515739D+01 EUMP2 =    -0.51203667311752D+03

 The electronic state is 1-A.
 Alpha  occ. eigenvalues --  -20.56082 -20.55207 -15.63477 -11.34672 -11.34474
 Alpha  occ. eigenvalues --  -11.33884 -11.33348 -11.30170 -11.26630 -11.26256
 Alpha  occ. eigenvalues --  -11.25509  -1.39224  -1.36169  -1.32369  -1.13459
 Alpha  occ. eigenvalues --   -1.08820  -1.00876  -0.96235  -0.85394  -0.82687
 Alpha  occ. eigenvalues --   -0.80450  -0.75916  -0.69009  -0.67334  -0.65051
 Alpha  occ. eigenvalues --   -0.63413  -0.62805  -0.61577  -0.60277  -0.59009
 Alpha  occ. eigenvalues --   -0.56073  -0.54381  -0.50327  -0.47472  -0.43608
 Alpha  occ. eigenvalues --   -0.40512  -0.40508  -0.30176
 Alpha virt. eigenvalues --    0.00004   0.11177   0.13294   0.13874   0.15235
 Alpha virt. eigenvalues --    0.16479   0.18275   0.19105   0.19538   0.27667
 Alpha virt. eigenvalues --    0.28222   0.29385   0.30788   0.33172   0.33383

 Mulliken charges:
               1
     1  O   -0.330516
     2  C    0.278845
     3  C   -0.198289
     4  C    0.117530
     5  C   -0.294647
     6  C   -0.037285
     7  N   -0.170158
     8  H    0.199094
     9  C    0.116257
    10  C   -0.329884
    11  C    0.288057
    12  O   -0.346553
    13  H    0.176426
    14  H    0.179371
    15  H    0.188381
    16  H    0.163373
 Sum of Mulliken charges =  -0.00000

 Dipole moment (field-independent basis, Debye):
    X=             -9.4079    Y=             -0.9185    Z=             -0.0435  Tot=              9.4527
 Quadrupole moment (field-independent basis, Debye-Ang):
   XX=            -68.9482   YY=            -57.7363   ZZ=            -64.9891
   XY=              4.2649   XZ=              0.1410   YZ=             -0.0019

 ESP charges:
               1
     1  O   -0.508805
     2  C    0.589606
     3  C   -0.525883
     4  C    0.333955
     5  C   -0.354815
     6  C    0.028174
     7  N   -0.366803
     8  H    0.334115
     9  C    0.169179
    10  C   -0.465116
    11  C    0.510377
    12  O   -0.503902
    13  H    0.229419
    14  H    0.164914
    15  H    0.160562
    16  H    0.205023
 Sum of ESP charges =   0.00000

 Normal termination of Gaussian 16 at Wed Jul 14 11:54:15 2021.
